ITEM: TIMESTEP
300
ITEM: NUMBER OF ATOMS
10206
ITEM: BOX BOUNDS pp pp pp
0.0000000000000000e+00 5.3240940000000002e+01
0.0000000000000000e+00 5.3240940000000002e+01
0.0000000000000000e+00 5.3240940000000002e+01
ITEM: ATOMS id type xs ys zs
3 1 0.0259046 0.0251623 0.0298235
4 1 0.0806848 0.0277198 0.028051
5 1 0.0273787 0.0820364 0.0316372
6 1 0.0818284 0.0817634 0.0266988
8 1 0.0867012 0.0235645 0.07829
9 1 0.0244435 0.0848823 0.0803955
10 1 0.0792529 0.082992 0.0773436
29 1 0.0563066 0.113066 -0.000347394
6806 2 0.0563396 -0.00107739 0.0536748
6808 2 0.00179355 0.0532201 0.0533759
6809 2 0.114077 0.00137891 0.00251241
6812 2 0.112278 0.0538323 0.0501795
6817 2 0.00256645 0.112704 0.000961694
6818 2 0.0526694 0.110956 0.0529057
6821 2 0.111847 0.112189 0.00205955
7 1 0.0231742 0.0222807 0.0785682
85 1 0.057167 0.00646352 0.109212
88 1 0.0857423 0.0308001 0.137635
89 1 0.0310985 0.08381 0.143083
90 1 0.0860664 0.085739 0.143625
95 1 0.106562 0.0606738 0.10977
113 1 0.0532474 0.11367 0.110498
6842 2 0.0508204 0.00390227 0.161447
6843 2 0.0562938 0.0539211 0.113953
6845 2 0.113607 0.00229295 0.113598
6854 2 0.0563301 0.111584 0.169215
6857 2 0.114203 0.11452 0.116132
9727 3 0.0285619 0.0306641 0.14107
87 1 0.0826583 0.0823785 0.18695
91 1 0.0258562 0.0292009 0.194731
92 1 0.081352 0.0295373 0.191138
93 1 0.02824 0.084813 0.194909
179 1 0.111659 0.0592027 0.225918
197 1 0.0587686 0.113001 0.223086
6848 2 0.113604 0.0529763 0.164348
6879 2 0.0524494 0.0547436 0.226003
6881 2 0.110389 -0.000374902 0.221542
6893 2 0.112534 0.112661 0.22417
9733 3 0.0279666 0.0265304 0.251646
171 1 0.082886 0.0837802 0.30574
172 1 0.0845809 0.0275047 0.252492
173 1 0.0269914 0.0873997 0.253799
174 1 0.0781432 0.0824787 0.254296
175 1 0.0269962 0.0293559 0.302518
176 1 0.0818555 0.0304433 0.302895
177 1 0.0326187 0.0823813 0.303623
2270 1 0.00162199 0.0528222 0.340085
2280 1 0.109227 0.0601369 0.331784
6880 2 0.00375867 0.0542669 0.275202
6884 2 0.109626 0.0578073 0.277627
6890 2 0.0538734 0.114903 0.275875
7779 2 0.057199 0.0554229 0.332826
2271 1 0.0294477 0.0283751 0.367367
2272 1 0.0820026 0.0263362 0.36664
2273 1 0.0288921 0.0844761 0.36746
2274 1 0.0814728 0.0818841 0.363195
2276 1 0.0839189 0.0259505 0.414445
2297 1 0.0566839 0.112089 0.334669
7777 2 0.000814965 0.00172701 0.332236
7778 2 0.0570943 0.00177744 0.39065
7780 2 0.000586314 0.0553509 0.386377
7784 2 0.11384 0.0546386 0.387007
7789 2 0.00257167 0.114659 0.335699
7790 2 0.0537867 0.113117 0.388481
7793 2 0.111496 0.110835 0.33231
2275 1 0.029203 0.032198 0.412067
2277 1 0.0249987 0.0856871 0.413765
2278 1 0.0774483 0.0804791 0.41606
2354 1 -0.00311582 0.0563279 0.446138
2356 1 0.0838378 0.0284544 0.477016
2357 1 0.0274534 0.0812557 0.472915
2358 1 0.0857369 0.0895459 0.476656
2363 1 0.108457 0.0602088 0.446322
2381 1 0.0489961 0.113894 0.446496
7813 2 0.00311562 0.0020352 0.447566
7814 2 0.0505746 0.00293316 0.499293
7815 2 0.0547652 0.0537618 0.450306
7817 2 0.111845 0.00254594 0.446813
7820 2 0.115514 0.0530794 0.496499
7829 2 0.114403 0.119791 0.447696
9889 3 0.0267005 0.0289517 0.475469
2355 1 0.0807138 0.0810161 0.523324
2359 1 0.0274411 0.0267729 0.529304
2360 1 0.0881878 0.0238473 0.52295
2361 1 0.0290187 0.0837537 0.526472
2440 1 0.086062 0.0256835 0.58801
2441 1 0.0286826 0.0850267 0.581371
2447 1 0.112715 0.0520557 0.562418
2465 1 0.0562872 0.116566 0.552566
7816 2 0.00175446 0.0552752 0.499371
7826 2 0.0553375 0.109937 0.499502
7851 2 0.0558066 0.0499261 0.556145
7861 2 0.000412154 0.114088 0.558399
7865 2 0.11471 0.114472 0.559678
9895 3 0.0314722 0.0297072 0.586295
2439 1 0.0809284 0.0810596 0.636647
2442 1 0.0834025 0.0822146 0.586557
2443 1 0.0314779 0.0308117 0.637057
2444 1 0.0836488 0.028501 0.642174
2445 1 0.0258575 0.0839613 0.634577
4548 1 0.11557 0.0595467 0.665553
4565 1 0.0522624 0.109517 0.672985
7850 2 0.0524542 0.00237512 0.610401
7852 2 0.00250884 0.0513824 0.605849
7856 2 0.111311 0.0538633 0.611811
7862 2 0.0535757 0.113582 0.608784
8765 2 0.112063 0.111081 0.667791
4539 1 0.0297624 0.0317291 0.702503
4540 1 0.0853668 0.0284453 0.698767
4541 1 0.02519 0.0838516 0.699354
4542 1 0.0840231 0.0856697 0.696411
4544 1 0.0826173 0.0234994 0.743992
4545 1 0.0288704 0.0829638 0.748047
4546 1 0.0839629 0.0823768 0.747215
8751 2 0.0540609 0.058411 0.669701
8752 2 -0.00136996 0.0552133 0.722281
8756 2 0.115014 0.0527151 0.720503
8761 2 0.00362047 0.11344 0.668066
8762 2 0.0526518 0.114944 0.71963
4543 1 0.0229396 0.0261752 0.746758
4621 1 0.0592054 0.00407335 0.778161
4622 1 -0.00181225 0.0573425 0.778114
4624 1 0.0851317 0.0264029 0.808981
4625 1 0.0275413 0.081375 0.804579
4626 1 0.08267 0.0834075 0.810035
4631 1 0.109998 0.0527472 0.777753
4649 1 0.0559655 0.116394 0.782444
8787 2 0.0540211 0.0530033 0.77916
8798 2 0.0568069 0.110028 0.83362
8801 2 0.114364 0.113578 0.780397
10051 3 0.0273668 0.0256316 0.806166
4623 1 0.0811768 0.0785739 0.855987
4627 1 0.0294988 0.0273428 0.85957
4628 1 0.0841506 0.0258225 0.859262
4629 1 0.0229817 0.0848146 0.854635
4706 1 0.00273525 0.0565053 0.885885
4708 1 0.085845 0.0247143 0.9162
4710 1 0.0795887 0.0804772 0.91837
4715 1 0.115761 0.055052 0.888896
4733 1 0.0540991 0.111095 0.885307
8786 2 0.0535509 0.0027363 0.831294
8788 2 0.00126484 0.0511406 0.829644
8792 2 0.112788 0.0530137 0.831386
8823 2 0.0524575 0.0546513 0.891106
8825 2 0.112339 0.000589808 0.889897
8833 2 0.00547955 0.113133 0.889815
8837 2 0.114531 0.116547 0.894002
10057 3 0.0278748 0.0286741 0.918059
2 1 0.00662579 0.0487523 0.994729
12 1 0.105657 0.0579969 0.998651
4707 1 0.0804639 0.0854261 0.96673
4709 1 0.0269571 0.0821099 0.919015
4711 1 0.0279957 0.0230173 0.970257
4712 1 0.0803855 0.0248818 0.966673
4713 1 0.0270322 0.0832253 0.972719
6807 2 0.0542523 0.0546131 0.99902
8822 2 0.0536175 0.000828462 0.938773
8824 2 0.00220547 0.0509731 0.943756
8828 2 0.109086 0.0578662 0.943159
8834 2 0.0540748 0.111881 0.942912
30 1 0.00383704 0.167177 -0.00185629
31 1 0.0781735 0.189843 0.080285
32 1 0.085397 0.134249 0.0314683
33 1 0.0329559 0.192205 0.0310182
34 1 0.0862575 0.197531 0.0305152
35 1 0.0279346 0.14023 0.0825034
37 1 0.0243818 0.193109 0.0796769
60 1 0.0831023 0.248366 0.0292501
63 1 0.0267229 0.246183 0.0803789
6824 2 0.111629 0.167282 0.055844
6830 2 0.0524875 0.222346 0.0524756
6833 2 0.117524 0.223598 0.00225628
9723 3 0.0289116 0.137413 0.0300868
9725 3 0.0289251 0.250715 0.0268165
36 1 0.0818571 0.142324 0.0798031
64 1 0.0837139 0.250751 0.0801989
115 1 0.0312353 0.139719 0.145423
116 1 0.0813353 0.140509 0.140521
117 1 0.0271721 0.196669 0.142362
118 1 0.0833095 0.197985 0.135994
124 1 0.115887 0.174305 0.113076
141 1 0.0541818 0.218213 0.108436
144 1 0.0860918 0.251171 0.138271
6855 2 0.0550421 0.166249 0.108935
6860 2 0.111852 0.165374 0.1631
6869 2 0.110117 0.224038 0.112119
9731 3 0.028266 0.250779 0.141252
119 1 0.0290434 0.137673 0.193172
120 1 0.0892267 0.132257 0.188385
121 1 0.0277262 0.192656 0.194923
122 1 0.0836176 0.197026 0.186371
147 1 0.0260385 0.248768 0.195771
148 1 0.0834212 0.250575 0.193556
207 1 0.111338 0.166419 0.218913
225 1 0.0508229 0.222621 0.225864
6866 2 0.0528671 0.225294 0.163605
6891 2 0.0549852 0.162974 0.223867
6901 2 -0.00102098 0.222107 0.222546
6905 2 0.113172 0.221405 0.223493
9735 3 0.0295491 0.138948 0.250907
199 1 0.0862274 0.194737 0.301637
200 1 0.0844787 0.13982 0.251998
201 1 0.0276728 0.196944 0.25195
202 1 0.0841159 0.193903 0.250882
203 1 0.0253481 0.134819 0.30129
204 1 0.0828552 0.139963 0.302465
205 1 0.0261344 0.196252 0.302134
228 1 0.0838048 0.253809 0.252644
6892 2 0.00317361 0.165625 0.273376
6896 2 0.115346 0.163379 0.275528
6902 2 0.0557954 0.218886 0.276761
2298 1 -0.000143854 0.164848 0.328069
2299 1 0.0830551 0.191905 0.413357
2300 1 0.0889256 0.131618 0.36172
2301 1 0.0256504 0.198723 0.3628
2302 1 0.0841145 0.191042 0.36288
2303 1 0.0299947 0.140926 0.416706
2307 1 0.118039 0.159032 0.332086
2325 1 0.0556655 0.218277 0.333244
2328 1 0.0825477 0.250258 0.364992
2332 1 0.0827864 0.24806 0.414051
7791 2 0.0521607 0.166586 0.333573
7796 2 0.110637 0.165991 0.385751
7801 2 -7.16249e-05 0.224002 0.333267
7802 2 0.0516665 0.225768 0.386475
7805 2 0.114729 0.226448 0.336742
9885 3 0.0295118 0.141244 0.364278
2304 1 0.082173 0.140764 0.410214
2305 1 0.0295438 0.195257 0.410764
2383 1 0.0296389 0.136662 0.476124
2384 1 0.0815275 0.141517 0.471123
2385 1 0.0284053 0.194028 0.472104
2386 1 0.0852666 0.192719 0.474269
2392 1 0.108972 0.163966 0.439778
2409 1 0.0585534 0.223574 0.44604
2412 1 0.08955 0.245388 0.475105
7827 2 0.0555871 0.167398 0.443205
7832 2 0.113476 0.165249 0.498224
7841 2 0.11135 0.220384 0.447172
2387 1 0.0272242 0.138138 0.520668
2388 1 0.0864044 0.138538 0.522692
2389 1 0.0283587 0.19591 0.526116
2390 1 0.0835152 0.192606 0.524861
2415 1 0.028822 0.246962 0.524966
2416 1 0.0802188 0.255887 0.520713
2468 1 0.0844967 0.136569 0.583747
2469 1 0.0290681 0.195945 0.582536
2475 1 0.116826 0.164382 0.55192
2493 1 0.056159 0.228722 0.555136
2495 1 0.0228627 0.247966 0.58548
7828 2 0.000866995 0.166406 0.500313
7838 2 0.057943 0.221975 0.497072
7863 2 0.0527955 0.164355 0.560994
7873 2 -3.77225e-06 0.224066 0.552833
7877 2 0.112871 0.22458 0.558674
2467 1 0.0769516 0.189641 0.634147
2470 1 0.0842309 0.191288 0.586958
2471 1 0.0294198 0.13991 0.638328
2472 1 0.0804561 0.136027 0.638418
2473 1 0.0288056 0.1961 0.632408
2499 1 0.0283388 0.249728 0.636499
2500 1 0.0822281 0.250168 0.636625
4575 1 0.108659 0.164452 0.668437
4593 1 0.0568415 0.224322 0.667174
7868 2 0.112225 0.164552 0.610072
7874 2 0.0576061 0.222586 0.611414
8773 2 0.0038002 0.221124 0.668298
8777 2 0.112206 0.225561 0.667518
9897 3 0.0276438 0.139885 0.584063
4566 1 0.00451373 0.171279 0.664676
4567 1 0.0825691 0.191401 0.751911
4568 1 0.085162 0.138401 0.694658
4569 1 0.031252 0.192299 0.699381
4570 1 0.0850617 0.1932 0.698943
4572 1 0.0840941 0.137913 0.746085
4596 1 0.0833241 0.244033 0.695165
8763 2 0.0537607 0.162417 0.670086
8764 2 0.00310715 0.167234 0.722101
8768 2 0.112472 0.166834 0.721743
8774 2 0.0513404 0.224799 0.719195
10047 3 0.026508 0.139776 0.697082
10049 3 0.0259102 0.248772 0.696549
4571 1 0.0306614 0.142247 0.747812
4573 1 0.026585 0.195998 0.749146
4650 1 0.000571347 0.1645 0.778727
4651 1 0.0232742 0.139677 0.807868
4652 1 0.0837496 0.137569 0.812468
4653 1 0.0293996 0.197804 0.808558
4654 1 0.0857746 0.192949 0.805883
4660 1 0.115334 0.168045 0.776281
4677 1 0.0575626 0.222664 0.778568
8799 2 0.0567452 0.167936 0.779216
8800 2 -0.00102099 0.168071 0.83107
8810 2 0.0543908 0.227385 0.834538
8813 2 0.109953 0.220399 0.777786
4655 1 0.0296467 0.14302 0.855384
4656 1 0.0861155 0.13448 0.858692
4657 1 0.030315 0.19351 0.858439
4658 1 0.0815339 0.194837 0.85734
4683 1 0.0221914 0.249479 0.859755
4736 1 0.0785157 0.141471 0.919095
4737 1 0.0224109 0.200548 0.920319
4738 1 0.0799884 0.196376 0.913957
4743 1 0.111389 0.167376 0.890492
4761 1 0.05234 0.230162 0.886428
4764 1 0.0841972 0.250946 0.917208
8804 2 0.114575 0.162556 0.831502
8835 2 0.052279 0.162479 0.890965
8845 2 0.000154471 0.222741 0.887306
8849 2 0.11412 0.223219 0.88766
39 1 0.11256 0.164843 1.0038
57 1 0.053689 0.224188 0.994904
4735 1 0.084867 0.196307 0.970024
4739 1 0.0248366 0.136131 0.972142
4740 1 0.0839696 0.135189 0.965465
4741 1 0.0331401 0.193454 0.967107
6819 2 0.0549357 0.164074 1.00084
6829 2 0.00348802 0.226008 1.00184
8836 2 0.00244301 0.164755 0.942347
8840 2 0.114913 0.164807 0.941467
8846 2 0.0556247 0.222452 0.944142
10059 3 0.0291872 0.138828 0.918188
61 1 0.0308322 0.305457 0.0279155
62 1 0.0851056 0.30313 0.0309219
67 1 0.113406 0.28185 0.00204563
757 1 0.0532562 0.33524 -0.000229203
759 1 0.0267399 0.357605 0.0304825
760 1 0.079075 0.361564 0.0282386
763 1 0.0244276 0.360375 0.078455
6836 2 0.113544 0.276963 0.0539337
7129 2 -0.000293637 0.331903 -0.00114105
7130 2 0.0562154 0.331793 0.0540643
7133 2 0.10959 0.332509 0.00223155
59 1 0.0870733 0.307085 0.0819055
65 1 0.0301952 0.301991 0.078612
142 1 -0.00194135 0.271567 0.108027
145 1 0.0233604 0.308251 0.141839
146 1 0.077934 0.3055 0.142477
151 1 0.115576 0.277548 0.113378
764 1 0.0773432 0.361383 0.0788789
841 1 0.050922 0.337027 0.103676
844 1 0.0851365 0.361609 0.139584
6867 2 0.0519958 0.272714 0.114305
6872 2 0.110699 0.278487 0.163911
7165 2 0.00431021 0.337928 0.112813
7169 2 0.115849 0.336604 0.113975
9781 3 0.0305431 0.361319 0.140168
143 1 0.086244 0.302217 0.192047
149 1 0.0311506 0.302042 0.188973
229 1 0.0290248 0.305018 0.253523
236 1 0.111785 0.281123 0.223962
847 1 0.0256333 0.36008 0.194634
848 1 0.0833485 0.362471 0.191021
925 1 0.0562221 0.334456 0.21668
928 1 0.0869698 0.359722 0.25604
6903 2 0.055788 0.277642 0.222725
7166 2 0.0534469 0.336153 0.165745
7201 2 0.00475016 0.334469 0.224407
7205 2 0.111259 0.333347 0.222776
227 1 0.0278034 0.251543 0.255989
230 1 0.0832225 0.306329 0.254727
231 1 0.0267132 0.244192 0.302305
232 1 0.0829818 0.248785 0.301061
233 1 0.025085 0.306398 0.303091
234 1 0.0803223 0.302533 0.303275
931 1 0.0224506 0.360357 0.304366
932 1 0.08191 0.364167 0.303507
6908 2 0.114844 0.274699 0.276739
7202 2 0.0540697 0.334349 0.278006
7803 2 0.0535673 0.271812 0.33525
9787 3 0.0291377 0.360184 0.252907
2326 1 -0.00428119 0.279204 0.329156
2327 1 0.0794868 0.29872 0.413753
2329 1 0.0253897 0.308495 0.364571
2330 1 0.0857637 0.306612 0.364038
2333 1 0.0272384 0.306074 0.414042
2335 1 0.10685 0.270446 0.330885
3025 1 0.0524661 0.331904 0.332259
3027 1 0.0298253 0.362258 0.36298
3028 1 0.0818068 0.366256 0.362871
3031 1 0.0241224 0.357524 0.411085
7804 2 0.00142534 0.275039 0.384699
7808 2 0.112933 0.27358 0.389952
8102 2 0.0549386 0.333749 0.390721
8105 2 0.11659 0.336664 0.333733
9887 3 0.0255413 0.24901 0.360945
2331 1 0.0276438 0.251855 0.414859
2413 1 0.027006 0.30544 0.472743
2414 1 0.0907413 0.309233 0.47447
2419 1 0.116825 0.273113 0.445599
3032 1 0.0837399 0.361136 0.41004
3109 1 0.0572794 0.336616 0.44088
3112 1 0.0862664 0.354865 0.474799
7839 2 0.0543886 0.273672 0.447313
7844 2 0.111433 0.276706 0.498068
8138 2 0.0510793 0.333797 0.49786
8141 2 0.114904 0.337091 0.447414
9893 3 0.0299226 0.250944 0.473253
9943 3 0.0278551 0.359894 0.474917
2411 1 0.0854786 0.304367 0.526709
2417 1 0.0279527 0.302198 0.522708
2497 1 0.028093 0.299487 0.583756
2504 1 0.109715 0.278659 0.553828
3115 1 0.028553 0.358099 0.524452
3116 1 0.0827773 0.358402 0.52194
3193 1 0.0578848 0.328981 0.555665
7840 2 0.00335111 0.275176 0.496345
7875 2 0.0548654 0.277278 0.556878
8173 2 0.00346938 0.335392 0.556943
8177 2 0.108924 0.332722 0.556395
9949 3 0.0274577 0.359043 0.58235
2496 1 0.0811284 0.25083 0.586778
2498 1 0.0823399 0.307948 0.586158
2501 1 0.0274344 0.304968 0.636112
2502 1 0.0861773 0.304778 0.633345
3196 1 0.0823449 0.358566 0.584897
3199 1 0.030112 0.364131 0.634849
3200 1 0.0854563 0.362208 0.636673
4594 1 -0.00221114 0.281115 0.662884
5293 1 0.0551868 0.336329 0.667041
7876 2 -0.00206127 0.277847 0.613389
7880 2 0.114712 0.274723 0.607668
8174 2 0.0516689 0.335339 0.608707
4595 1 0.0810578 0.303929 0.740425
4597 1 0.0251233 0.307119 0.694819
4598 1 0.0797325 0.303298 0.693059
4599 1 0.0311327 0.254212 0.747792
4600 1 0.0841384 0.248583 0.746634
4603 1 0.114281 0.276683 0.664698
5295 1 0.0229455 0.35732 0.696837
5296 1 0.0783964 0.362161 0.69675
5300 1 0.0844298 0.358807 0.747595
8775 2 0.0542348 0.277426 0.666526
8780 2 0.113346 0.274537 0.716381
9073 2 -0.00365137 0.334206 0.665884
9074 2 0.0537171 0.333101 0.720603
9077 2 0.112457 0.334313 0.666462
4601 1 0.0269818 0.305104 0.749799
4678 1 0.00191971 0.27836 0.77901
4680 1 0.0892994 0.245346 0.807388
4681 1 0.0284283 0.30479 0.812066
4682 1 0.0791715 0.306165 0.809232
4687 1 0.111025 0.277079 0.781925
5299 1 0.0322114 0.364112 0.745062
5377 1 0.0536942 0.333009 0.777301
5380 1 0.0828833 0.360219 0.806155
8811 2 0.0521685 0.276676 0.782127
8816 2 0.109227 0.277525 0.831115
9109 2 0.00557161 0.335436 0.782681
9113 2 0.11254 0.336427 0.781403
10055 3 0.027073 0.252876 0.808454
10105 3 0.0259706 0.360516 0.807972
4679 1 0.0815692 0.307006 0.856291
4684 1 0.080778 0.25865 0.85677
4685 1 0.0319321 0.30542 0.858717
4763 1 0.0270642 0.249615 0.919608
4766 1 0.0822727 0.30567 0.915825
4772 1 0.110029 0.279445 0.891355
5383 1 0.0286402 0.363022 0.860832
5384 1 0.0859368 0.361055 0.856966
5461 1 0.0554606 0.334159 0.88642
8847 2 0.0558863 0.28026 0.88789
9110 2 0.0518554 0.33944 0.831065
9149 2 0.107847 0.332619 0.886999
10111 3 0.0290466 0.361242 0.919009
4765 1 0.0246512 0.30633 0.915879
4767 1 0.0305103 0.250278 0.968109
4768 1 0.0844643 0.252308 0.969841
4769 1 0.0272101 0.306323 0.966436
4770 1 0.0848467 0.307337 0.964969
5464 1 0.0834365 0.358209 0.918126
5467 1 0.0265936 0.362724 0.971625
5468 1 0.084496 0.361025 0.970198
6831 2 0.0526449 0.274204 1.00149
8852 2 0.114698 0.274128 0.943203
9146 2 0.0521863 0.334338 0.941143
761 1 0.0314693 0.413679 0.0282023
762 1 0.0796738 0.412002 0.0330354
765 1 0.0283233 0.415417 0.0774613
768 1 0.110616 0.388826 -0.00194802
785 1 0.061704 0.442808 0.00182645
786 1 0.00101812 0.498839 -0.000424501
788 1 0.0849776 0.471534 0.0318427
795 1 0.113182 0.492646 -0.00302014
7136 2 0.113265 0.384856 0.0538068
7141 2 0.00129008 0.447477 0.00510211
7142 2 0.0522344 0.447181 0.0532759
7143 2 0.0543303 0.497574 0.00118475
9777 3 0.0267929 0.47246 0.030183
766 1 0.0763431 0.414169 0.0827462
791 1 0.0276705 0.475365 0.0837407
792 1 0.0818944 0.471798 0.0819942
845 1 0.0277539 0.421366 0.140873
846 1 0.0873998 0.41736 0.143873
851 1 0.112018 0.386959 0.108272
869 1 0.0532462 0.445778 0.115042
871 1 0.0268212 0.473255 0.141662
872 1 0.0850378 0.471702 0.140492
880 1 0.109566 0.503991 0.107093
7167 2 0.0507331 0.387335 0.11257
7168 2 0.00503896 0.386472 0.163998
7177 2 -0.000792705 0.444128 0.111378
7178 2 0.0574406 0.446035 0.163677
7179 2 0.0563814 0.497518 0.109773
7181 2 0.114342 0.448308 0.111655
7184 2 0.111086 0.499438 0.164554
843 1 0.0837248 0.416148 0.191914
849 1 0.0273992 0.420978 0.187849
875 1 0.0261543 0.468188 0.191747
876 1 0.0837478 0.471324 0.191678
929 1 0.0261551 0.417306 0.252837
935 1 0.115891 0.388468 0.226747
953 1 0.0554577 0.441366 0.222902
954 1 0.00156194 0.495472 0.217495
956 1 0.0851596 0.470349 0.25235
7172 2 0.113164 0.384183 0.162194
7203 2 0.0551312 0.387975 0.224914
7217 2 0.114045 0.446418 0.223725
927 1 0.0826697 0.416927 0.300147
930 1 0.0848139 0.414358 0.252413
933 1 0.0231341 0.416801 0.302851
959 1 0.0255379 0.46883 0.303314
960 1 0.0814259 0.476237 0.302189
3026 1 -0.00319333 0.389638 0.338595
3054 1 -0.00113574 0.499872 0.330062
7204 2 0.000689693 0.386221 0.271728
7208 2 0.112748 0.389261 0.277354
7214 2 0.0536513 0.445518 0.273841
7220 2 0.114444 0.499281 0.276643
8103 2 0.0537026 0.391955 0.331019
8113 2 0.00175529 0.447685 0.335061
8117 2 0.115182 0.445544 0.333999
9789 3 0.028477 0.475349 0.253948
3029 1 0.0280469 0.416957 0.364458
3030 1 0.0852303 0.417842 0.360092
3036 1 0.109688 0.39142 0.327457
3053 1 0.0526762 0.443123 0.33149
3056 1 0.0845298 0.465923 0.361423
3060 1 0.0825368 0.471977 0.413823
8108 2 0.115356 0.387794 0.38791
8114 2 0.0539965 0.447588 0.386596
8116 2 0.000543984 0.499319 0.385182
8120 2 0.109144 0.501228 0.386174
9939 3 0.0264805 0.473346 0.362979
3033 1 0.0295972 0.412944 0.414127
3034 1 0.0862994 0.419126 0.4126
3059 1 0.0293458 0.472629 0.414639
3110 1 0.00185543 0.388435 0.444752
3113 1 0.0280244 0.4144 0.474012
3114 1 0.0791344 0.415132 0.472993
3119 1 0.113053 0.386851 0.442266
3137 1 0.0543658 0.447697 0.446391
3139 1 0.0312943 0.472119 0.474405
3140 1 0.0812189 0.473034 0.473303
3148 1 0.109999 0.504009 0.443977
8139 2 0.0503769 0.386416 0.44771
8144 2 0.1124 0.386247 0.498378
8151 2 0.0570342 0.498932 0.445103
8153 2 0.111923 0.44537 0.448361
3111 1 0.0843811 0.41897 0.520479
3117 1 0.0274027 0.41549 0.522965
3143 1 0.0275153 0.473413 0.523444
3144 1 0.0832509 0.471223 0.527157
3203 1 0.101992 0.381818 0.555616
3221 1 0.0526928 0.446801 0.554828
3222 1 -0.00119614 0.50155 0.553703
3231 1 0.106996 0.496815 0.555312
8150 2 0.0552222 0.443922 0.49892
8156 2 0.110919 0.499131 0.49751
8175 2 0.0547781 0.38669 0.554806
8185 2 0.000806518 0.447008 0.558439
8189 2 0.114772 0.448731 0.559802
9951 3 0.0254477 0.4723 0.585669
3195 1 0.0833755 0.414153 0.633928
3197 1 0.0275147 0.41694 0.58365
3198 1 0.0852636 0.415606 0.581869
3201 1 0.0272365 0.416301 0.634833
3224 1 0.0838638 0.472845 0.591365
3227 1 0.0274446 0.469832 0.636228
3228 1 0.0842965 0.469978 0.63731
5294 1 -0.0027096 0.386615 0.670079
5304 1 0.107454 0.389396 0.671305
5321 1 0.0622186 0.444757 0.665026
8176 2 0.00137952 0.38508 0.606004
8180 2 0.110759 0.389181 0.609808
8186 2 0.052657 0.447576 0.608684
9075 2 0.058542 0.3883 0.663946
9085 2 0.00205844 0.445742 0.667923
9087 2 0.0552587 0.497046 0.668486
9089 2 0.10982 0.445735 0.664806
5297 1 0.0296489 0.417043 0.692626
5298 1 0.0827913 0.417507 0.697512
5302 1 0.0834116 0.417309 0.746476
5322 1 0.00314273 0.499544 0.664167
5324 1 0.0875659 0.473785 0.695257
5327 1 0.0307687 0.474612 0.748163
5328 1 0.0817807 0.473264 0.746746
9076 2 0.00163052 0.389402 0.722996
9080 2 0.115263 0.385822 0.718422
9086 2 0.0533968 0.447251 0.719885
9088 2 0.00453964 0.497192 0.719077
9092 2 0.111029 0.499505 0.722952
10101 3 0.0293322 0.471012 0.694294
5301 1 0.0274929 0.418448 0.74974
5381 1 0.0292348 0.413056 0.806653
5382 1 0.0803536 0.415011 0.807159
5387 1 0.113735 0.390684 0.777505
5405 1 0.0477546 0.453467 0.783752
5406 1 0.00475704 0.496571 0.780782
5407 1 0.0271984 0.47098 0.812469
5408 1 0.0854854 0.470958 0.808064
9111 2 0.0521961 0.385215 0.779064
9112 2 0.0020815 0.388707 0.832615
9121 2 0.00220883 0.447749 0.780872
9122 2 0.0548884 0.442613 0.834493
9123 2 0.0557744 0.501859 0.779388
9125 2 0.111588 0.446435 0.781864
5379 1 0.0852535 0.416642 0.857254
5385 1 0.0255852 0.416232 0.856481
5411 1 0.0231149 0.467554 0.856327
5412 1 0.0829778 0.471406 0.855768
5462 1 -0.00376133 0.383699 0.891668
5471 1 0.108428 0.388653 0.895962
5489 1 0.0538403 0.443319 0.884409
5492 1 0.0791926 0.474439 0.917825
5499 1 0.112097 0.496804 0.890726
9116 2 0.112189 0.38689 0.83163
9124 2 -0.000830261 0.500934 0.83221
9128 2 0.113362 0.496115 0.831445
9147 2 0.053882 0.384892 0.892027
9159 2 0.0513807 0.496462 0.889983
9161 2 0.116443 0.446515 0.89108
5463 1 0.086953 0.420639 0.971187
5465 1 0.0286767 0.414478 0.916877
5466 1 0.0817873 0.415804 0.922933
5469 1 0.0309261 0.41397 0.967691
5495 1 0.0313282 0.473201 0.972401
5496 1 0.0836258 0.471047 0.970292
7131 2 0.0572194 0.385994 0.999575
7145 2 0.109185 0.445409 1.00002
9148 2 0.00356774 0.387986 0.93973
9152 2 0.111461 0.388279 0.942827
9158 2 0.0510794 0.446972 0.94097
9164 2 0.112068 0.496827 0.940485
10113 3 0.0264055 0.471271 0.918246
787 1 0.0813886 0.525317 0.0802033
789 1 0.0291165 0.526481 0.0283912
790 1 0.0853335 0.530337 0.0295483
793 1 0.0301277 0.52716 0.0794029
816 1 0.0837794 0.582735 0.0255396
819 1 0.0263169 0.582622 0.0804531
823 1 0.111814 0.613758 -0.00246392
7148 2 0.11142 0.502089 0.0587233
7154 2 0.0550109 0.559758 0.0521541
7156 2 0.000645301 0.608723 0.0515016
7157 2 0.115019 0.559091 0.00248365
7160 2 0.112214 0.609875 0.0523172
9779 3 0.0284031 0.583861 0.0293479
820 1 0.0855729 0.579882 0.0799822
873 1 0.0310111 0.522307 0.143545
874 1 0.0833945 0.529101 0.138492
897 1 0.0546435 0.552552 0.113269
900 1 0.0802934 0.582043 0.138388
907 1 0.111309 0.611214 0.115059
7180 2 -0.00166781 0.498912 0.170145
7189 2 0.00371262 0.557049 0.114143
7190 2 0.0531089 0.556339 0.16215
7191 2 0.0524301 0.609058 0.110697
7192 2 0.00277663 0.609611 0.162942
7193 2 0.112771 0.555576 0.113026
7196 2 0.110799 0.610269 0.166966
9785 3 0.0261717 0.582033 0.140809
877 1 0.0315142 0.523322 0.189784
878 1 0.082732 0.528032 0.18889
903 1 0.0250019 0.579687 0.190346
904 1 0.0797281 0.584357 0.190435
957 1 0.0273319 0.527489 0.247235
958 1 0.0816478 0.522478 0.251971
963 1 0.113621 0.503452 0.224672
981 1 0.0513134 0.556167 0.223993
983 1 0.0229046 0.581598 0.254585
992 1 0.11187 0.612183 0.21906
7215 2 0.0519448 0.495491 0.224643
7227 2 0.0582124 0.612613 0.220562
7229 2 0.115181 0.554772 0.223691
955 1 0.0878691 0.528211 0.299453
961 1 0.0299456 0.529256 0.301738
984 1 0.0830593 0.584999 0.24813
987 1 0.0294643 0.585508 0.30157
988 1 0.0834176 0.580656 0.303791
3063 1 0.110685 0.493007 0.338861
3081 1 0.0546511 0.555438 0.335955
3091 1 0.107484 0.608732 0.335263
7216 2 0.00142147 0.497807 0.275925
7226 2 0.0587231 0.556048 0.274821
7232 2 0.110973 0.607908 0.276547
8115 2 0.0526076 0.496685 0.334586
8125 2 -0.000861156 0.560013 0.333609
8129 2 0.113457 0.559173 0.33612
3057 1 0.0327797 0.526659 0.363116
3058 1 0.0779467 0.523038 0.365884
3061 1 0.0272395 0.531192 0.416297
3084 1 0.0857802 0.581305 0.362795
3087 1 0.0317307 0.582746 0.415376
3088 1 0.0815989 0.58363 0.411551
8126 2 0.0536387 0.558436 0.384303
8127 2 0.050383 0.606976 0.335707
8128 2 0.00301347 0.606908 0.389239
8132 2 0.11238 0.610276 0.384873
9941 3 0.0267526 0.584148 0.363572
3055 1 0.0795576 0.525107 0.412141
3141 1 0.0285921 0.527531 0.47187
3142 1 0.0828145 0.529318 0.475022
3165 1 0.0569592 0.557487 0.444394
3168 1 0.0801444 0.585375 0.474583
3175 1 0.115807 0.609887 0.442413
8161 2 0.00232922 0.560071 0.448162
8163 2 0.0522517 0.608476 0.447309
8165 2 0.111145 0.555419 0.444931
8168 2 0.11108 0.610621 0.498724
9947 3 0.0267582 0.58214 0.475979
3145 1 0.0303596 0.526068 0.52182
3146 1 0.0821617 0.529185 0.5211
3171 1 0.0300616 0.586465 0.523092
3172 1 0.0835886 0.582799 0.524693
3249 1 0.0529446 0.559628 0.553285
3251 1 0.0252542 0.577293 0.591281
3260 1 0.10871 0.606625 0.556688
8162 2 0.053033 0.558206 0.499033
8187 2 0.0513621 0.498209 0.558716
8199 2 0.0544582 0.610831 0.553827
8201 2 0.116793 0.560187 0.558106
3223 1 0.0811592 0.520439 0.628527
3225 1 0.027621 0.528579 0.584665
3226 1 0.0816975 0.530116 0.584417
3229 1 0.0248628 0.526476 0.635114
3252 1 0.0816248 0.581296 0.585445
3255 1 0.0267536 0.586023 0.634762
3256 1 0.0834057 0.585695 0.639005
5349 1 0.0584476 0.549305 0.663401
8192 2 0.11438 0.496636 0.609549
8198 2 0.0566034 0.555927 0.61394
8200 2 -0.000129725 0.610728 0.608924
8204 2 0.112498 0.60797 0.60614
9099 2 0.0540463 0.609958 0.666683
5323 1 0.089351 0.530994 0.749943
5325 1 0.026872 0.529505 0.697636
5326 1 0.0823544 0.528397 0.699763
5329 1 0.0309471 0.526009 0.746063
5331 1 0.115921 0.500365 0.665446
5352 1 0.0855716 0.585454 0.695639
5356 1 0.0842205 0.584952 0.746427
5359 1 0.115274 0.614186 0.669468
9098 2 0.0534805 0.55834 0.719254
9101 2 0.115529 0.559345 0.668411
9104 2 0.115561 0.607087 0.717495
10103 3 0.0294175 0.583931 0.693811
5355 1 0.027616 0.579049 0.744176
5409 1 0.0299271 0.529486 0.807468
5410 1 0.0823114 0.525406 0.811177
5416 1 0.106147 0.501551 0.780274
5433 1 0.0578461 0.5551 0.775935
5434 1 0.00138312 0.607111 0.774814
5436 1 0.0850058 0.581146 0.809446
5443 1 0.118021 0.604708 0.782762
9135 2 0.054316 0.608553 0.778809
9137 2 0.111896 0.555453 0.778678
9140 2 0.111486 0.611418 0.833588
10109 3 0.0277008 0.582684 0.810494
5413 1 0.0240883 0.527394 0.859552
5414 1 0.0807607 0.522457 0.861871
5439 1 0.0293839 0.586443 0.860169
5440 1 0.0826492 0.583135 0.860581
5517 1 0.0506833 0.552339 0.888053
5520 1 0.0761576 0.58774 0.919752
5528 1 0.114476 0.612919 0.883163
9134 2 0.0546069 0.556524 0.833235
9171 2 0.0562929 0.6095 0.889521
9173 2 0.114026 0.556488 0.891655
813 1 0.0523576 0.558634 0.994323
5491 1 0.0881935 0.532893 0.9678
5493 1 0.0242247 0.527632 0.920008
5494 1 0.0846372 0.530051 0.919284
5497 1 0.0337198 0.522977 0.971538
5519 1 0.0291092 0.581204 0.918195
5523 1 0.0223573 0.577827 0.967266
5524 1 0.0803911 0.584523 0.966298
7155 2 0.0517553 0.60574 1.00057
9170 2 0.0558431 0.553771 0.945499
9172 2 -0.000862014 0.609821 0.944366
9176 2 0.110715 0.607596 0.941135
815 1 0.0795865 0.63502 0.0788575
817 1 0.0254281 0.637619 0.0279872
818 1 0.0842749 0.63896 0.0304166
1514 1 -0.002513 0.719582 0.00389842
1515 1 0.0245747 0.694391 0.0316967
1516 1 0.0812978 0.693777 0.0308151
1517 1 0.0295305 0.745226 0.0320574
1519 1 0.0288393 0.695831 0.0758234
7454 2 0.0541909 0.666137 0.0542404
7457 2 0.112624 0.668336 0.000985292
7460 2 0.11182 0.716261 0.0541735
821 1 0.0246433 0.637103 0.0800536
901 1 0.0327736 0.636048 0.141257
902 1 0.0829192 0.637768 0.145539
1520 1 0.0801824 0.692129 0.0790895
1597 1 0.0535133 0.666874 0.107943
1600 1 0.082653 0.692944 0.144857
1601 1 0.0268766 0.753432 0.141152
1602 1 0.0772225 0.742304 0.141194
1607 1 0.102826 0.718862 0.113201
7489 2 0.00272407 0.671353 0.111669
7490 2 0.0529434 0.669044 0.164712
7491 2 0.0543549 0.721134 0.112928
7492 2 0.00270306 0.720478 0.164416
7493 2 0.113475 0.667331 0.113291
9835 3 0.0253147 0.6939 0.139281
899 1 0.0863188 0.638736 0.190767
905 1 0.0296024 0.639408 0.195754
985 1 0.0305062 0.635545 0.254088
986 1 0.084412 0.63719 0.252766
1599 1 0.084052 0.750647 0.188734
1603 1 0.0278238 0.693551 0.191639
1604 1 0.0820243 0.693849 0.189395
1605 1 0.0275969 0.75291 0.189106
1681 1 0.0576309 0.661455 0.222862
1685 1 0.0253681 0.751947 0.252404
1691 1 0.113989 0.718154 0.222075
7496 2 0.113423 0.719757 0.163223
7527 2 0.0512637 0.719119 0.226167
7529 2 0.110224 0.667461 0.219845
9841 3 0.0284416 0.695218 0.251535
989 1 0.0245318 0.641111 0.302846
990 1 0.0781933 0.636027 0.298678
1683 1 0.0857325 0.74973 0.305181
1684 1 0.0846206 0.693538 0.253103
1687 1 0.0246013 0.692907 0.302431
1688 1 0.0820848 0.69563 0.304964
1689 1 0.0280393 0.745515 0.301609
3781 1 0.0506395 0.672586 0.330813
3782 1 -0.00426533 0.721014 0.3353
3792 1 0.115256 0.72294 0.331786
7526 2 0.053136 0.666821 0.274572
7528 2 0.00242419 0.723013 0.273312
7532 2 0.111735 0.721168 0.277729
8427 2 0.0562521 0.722433 0.334924
8429 2 0.113187 0.670052 0.336116
3085 1 0.028671 0.640369 0.363759
3086 1 0.0806515 0.638029 0.359985
3089 1 0.0247127 0.639728 0.412391
3783 1 0.0254033 0.692254 0.36895
3784 1 0.0808585 0.692146 0.36401
8425 2 -0.00116178 0.666923 0.333169
8426 2 0.0536011 0.667815 0.389869
8432 2 0.116484 0.719364 0.388091
3083 1 0.0852368 0.639646 0.40857
3169 1 0.0268383 0.635063 0.471884